# vtk DataFile Version 2.0
"cube.obj"
ASCII
DATASET POLYDATA
POINTS 98 float
1 -1 -1
1 -1 1
-1 -1 1
-1 -1 -1
1 1 -0.999999
0.999999 1 1
-1 1 1
-1 1 -1
1 -1 0
0 -1 -1
1 0 -1
0 -1 1
1 0 1
-1 -1 -0
-1 0 1
-1 0 -1
1 1 1e-06
0 1 -1
-1e-06 1 1
-1 1 -0
0 -1 -0
-0 1 0
1 0 0
-0 0 1
-1 0 -0
0 0 -1
1 -1 0.5
-0.5 -1 -1
1 0.5 -1
-0.5 -1 1
1 0.5 1
-1 -1 -0.5
-1 0.5 1
-1 0.5 -1
1 1 0.500001
-0.5 1 -1
-0.5 1 1
-1 1 -0.5
1 -1 -0.5
0.5 -1 -1
1 -0.5 -1
0.5 -1 1
1 -0.5 1
-1 -1 0.5
-1 -0.5 1
-1 -0.5 -1
1 1 -0.499999
0.5 1 -1
0.499999 1 1
-1 1 0.5
-0.5 -1 -0
0.5 -1 -0
0 -1 -0.5
0 -1 0.5
-0 1 0.5
0 1 -0.5
0.5 1 0
-0.5 1 0
1 0 0.5
1 0 -0.5
1 -0.5 0
1 0.5 0
-0.5 0 1
0.5 0 1
-0 -0.5 1
-0 0.5 1
-1 0 -0.5
-1 0 0.5
-1 -0.5 -0
-1 0.5 -0
-0.5 0 -1
0.5 0 -1
0 0.5 -1
0 -0.5 -1
-0.5 -1 0.5
-0.5 1 0.5
1 0.5 0.5
-0.5 0.5 1
-1 0.5 -0.5
-0.5 -0.5 -1
-0.5 -1 -0.5
0.5 -1 -0.5
0.5 -1 0.5
0.5 1 0.5
0.5 1 -0.5
-0.5 1 -0.5
1 -0.5 0.5
1 -0.5 -0.5
1 0.5 -0.5
-0.5 -0.5 1
0.5 -0.5 1
0.5 0.5 1
-1 -0.5 -0.5
-1 -0.5 0.5
-1 0.5 0.5
-0.5 0.5 -1
0.5 0.5 -1
0.5 -0.5 -1
LINES 0 0
POLYGONS 192 768
3 74 29 43
3 75 49 36
3 76 34 30
3 77 36 32
3 78 37 33
3 79 27 45
3 80 50 31
3 81 51 52
3 82 41 53
3 83 54 48
3 84 55 56
3 85 37 57
3 86 58 42
3 87 59 60
3 88 46 61
3 89 62 44
3 90 63 64
3 91 48 65
3 92 66 45
3 93 67 68
3 94 49 69
3 95 70 33
3 96 71 72
3 97 39 73
3 50 74 13
3 20 53 50
3 53 11 74
3 54 75 18
3 21 57 54
3 57 19 75
3 58 76 12
3 22 61 58
3 61 16 76
3 62 77 14
3 23 65 62
3 65 18 77
3 66 78 15
3 24 69 66
3 69 19 78
3 70 79 15
3 25 73 70
3 73 9 79
3 27 80 3
3 9 52 27
3 52 20 80
3 39 81 9
3 0 38 39
3 38 8 81
3 51 82 20
3 8 26 51
3 26 1 82
3 34 83 5
3 16 56 34
3 56 21 83
3 46 84 16
3 4 47 46
3 47 17 84
3 55 85 21
3 17 35 55
3 35 7 85
3 26 86 1
3 8 60 26
3 60 22 86
3 38 87 8
3 0 40 38
3 40 10 87
3 59 88 22
3 10 28 59
3 28 4 88
3 29 89 2
3 11 64 29
3 64 23 89
3 41 90 11
3 1 42 41
3 42 12 90
3 63 91 23
3 12 30 63
3 30 5 91
3 31 92 3
3 13 68 31
3 68 24 92
3 43 93 13
3 2 44 43
3 44 14 93
3 67 94 24
3 14 32 67
3 32 6 94
3 35 95 7
3 17 72 35
3 72 25 95
3 47 96 17
3 4 28 47
3 28 10 96
3 71 97 25
3 10 40 71
3 40 0 97
3 29 2 43
3 49 6 36
3 34 5 30
3 36 6 32
3 37 7 33
3 27 3 45
3 50 13 31
3 51 20 52
3 41 11 53
3 54 18 48
3 55 21 56
3 37 19 57
3 58 12 42
3 59 22 60
3 46 16 61
3 62 14 44
3 63 23 64
3 48 18 65
3 66 15 45
3 67 24 68
3 49 19 69
3 70 15 33
3 71 25 72
3 39 9 73
3 74 43 13
3 53 74 50
3 11 29 74
3 75 36 18
3 57 75 54
3 19 49 75
3 76 30 12
3 61 76 58
3 16 34 76
3 77 32 14
3 65 77 62
3 18 36 77
3 78 33 15
3 69 78 66
3 19 37 78
3 79 45 15
3 73 79 70
3 9 27 79
3 80 31 3
3 52 80 27
3 20 50 80
3 81 52 9
3 38 81 39
3 8 51 81
3 82 53 20
3 26 82 51
3 1 41 82
3 83 48 5
3 56 83 34
3 21 54 83
3 84 56 16
3 47 84 46
3 17 55 84
3 85 57 21
3 35 85 55
3 7 37 85
3 86 42 1
3 60 86 26
3 22 58 86
3 87 60 8
3 40 87 38
3 10 59 87
3 88 61 22
3 28 88 59
3 4 46 88
3 89 44 2
3 64 89 29
3 23 62 89
3 90 64 11
3 42 90 41
3 12 63 90
3 91 65 23
3 30 91 63
3 5 48 91
3 92 45 3
3 68 92 31
3 24 66 92
3 93 68 13
3 44 93 43
3 14 67 93
3 94 69 24
3 32 94 67
3 6 49 94
3 95 33 7
3 72 95 35
3 25 70 95
3 96 72 17
3 28 96 47
3 10 71 96
3 97 73 25
3 40 97 71
3 0 39 97
POINT_DATA 98
SCALARS pointID float 1
LOOKUP_TABLE default
0 1
2 3 4 5 6 7 8 9 10 11
12 13 14 15 16 17 18 19 20 21
22 23 24 25 26 27 28 29 30 31
32 33 34 35 36 37 38 39 40 41
42 43 44 45 46 47 48 49 50 51
52 53 54 55 56 57 58 59 60 61
62 63 64 65 66 67 68 69 70 71
72 73 74 75 76 77 78 79 80 81
82 83 84 85 86 87 88 89 90 91
92 93 94 95 96 97 